42
Properties=species:S:1:pos:R:3:momenta:R:3:forces:R:3 ala3_vac_capped.pdb=T energy=0.0 free_energy=0.0 pbc="F F F"
C       14.00200000      28.02500000      48.09400000       0.00000000       0.00000000       0.00000000       0.00000000       0.00000000       0.00000000
O       14.61300000      27.03200000      47.67700000       0.00000000       0.00000000       0.00000000       0.00000000       0.00000000       0.00000000
C       12.54500000      27.93300000      48.49300000       0.00000000       0.00000000       0.00000000       0.00000000       0.00000000       0.00000000
H       12.42500000      27.21800000      49.29400000       0.00000000       0.00000000       0.00000000       0.00000000       0.00000000       0.00000000
H       12.19200000      28.89700000      48.82900000       0.00000000       0.00000000       0.00000000       0.00000000       0.00000000       0.00000000
H       11.95000000      27.61700000      47.64900000       0.00000000       0.00000000       0.00000000       0.00000000       0.00000000       0.00000000
N       14.61600000      29.15500000      48.19000000       0.00000000       0.00000000       0.00000000       0.00000000       0.00000000       0.00000000
C       16.02200000      29.23100000      47.80200000       0.00000000       0.00000000       0.00000000       0.00000000       0.00000000       0.00000000
C       16.85300000      28.24400000      48.58600000       0.00000000       0.00000000       0.00000000       0.00000000       0.00000000       0.00000000
O       17.68000000      27.50300000      48.04100000       0.00000000       0.00000000       0.00000000       0.00000000       0.00000000       0.00000000
C       16.48200000      30.68500000      47.99700000       0.00000000       0.00000000       0.00000000       0.00000000       0.00000000       0.00000000
H       14.13300000      29.97500000      48.52800000       0.00000000       0.00000000       0.00000000       0.00000000       0.00000000       0.00000000
H       16.10900000      28.95700000      46.73300000       0.00000000       0.00000000       0.00000000       0.00000000       0.00000000       0.00000000
H       15.88600000      31.39000000      47.38600000       0.00000000       0.00000000       0.00000000       0.00000000       0.00000000       0.00000000
H       16.39000000      31.01400000      49.05000000       0.00000000       0.00000000       0.00000000       0.00000000       0.00000000       0.00000000
H       17.53800000      30.82600000      47.70400000       0.00000000       0.00000000       0.00000000       0.00000000       0.00000000       0.00000000
N       16.69600000      28.17100000      49.86500000       0.00000000       0.00000000       0.00000000       0.00000000       0.00000000       0.00000000
C       17.49900000      27.21700000      50.62300000       0.00000000       0.00000000       0.00000000       0.00000000       0.00000000       0.00000000
C       17.30200000      25.81300000      50.10500000       0.00000000       0.00000000       0.00000000       0.00000000       0.00000000       0.00000000
O       18.25400000      25.05600000      49.88200000       0.00000000       0.00000000       0.00000000       0.00000000       0.00000000       0.00000000
C       17.12100000      27.36400000      52.10700000       0.00000000       0.00000000       0.00000000       0.00000000       0.00000000       0.00000000
H       16.02700000      28.76600000      50.33400000       0.00000000       0.00000000       0.00000000       0.00000000       0.00000000       0.00000000
H       18.56800000      27.47000000      50.48900000       0.00000000       0.00000000       0.00000000       0.00000000       0.00000000       0.00000000
H       17.30700000      28.39000000      52.47900000       0.00000000       0.00000000       0.00000000       0.00000000       0.00000000       0.00000000
H       16.05000000      27.14500000      52.28800000       0.00000000       0.00000000       0.00000000       0.00000000       0.00000000       0.00000000
H       17.70600000      26.68200000      52.75100000       0.00000000       0.00000000       0.00000000       0.00000000       0.00000000       0.00000000
N       16.10300000      25.38900000      49.89000000       0.00000000       0.00000000       0.00000000       0.00000000       0.00000000       0.00000000
C       15.91200000      24.03100000      49.38900000       0.00000000       0.00000000       0.00000000       0.00000000       0.00000000       0.00000000
C       16.66000000      23.82200000      48.09400000       0.00000000       0.00000000       0.00000000       0.00000000       0.00000000       0.00000000
O       17.36600000      22.82600000      47.89700000       0.00000000       0.00000000       0.00000000       0.00000000       0.00000000       0.00000000
C       14.39900000      23.79300000      49.24800000       0.00000000       0.00000000       0.00000000       0.00000000       0.00000000       0.00000000
H       15.30800000      25.98700000      50.06500000       0.00000000       0.00000000       0.00000000       0.00000000       0.00000000       0.00000000
H       16.32900000      23.32000000      50.12700000       0.00000000       0.00000000       0.00000000       0.00000000       0.00000000       0.00000000
H       13.87300000      23.91300000      50.21500000       0.00000000       0.00000000       0.00000000       0.00000000       0.00000000       0.00000000
H       13.93000000      24.50000000      48.53600000       0.00000000       0.00000000       0.00000000       0.00000000       0.00000000       0.00000000
H       14.17400000      22.77300000      48.89000000       0.00000000       0.00000000       0.00000000       0.00000000       0.00000000       0.00000000
N       16.56000000      24.71100000      47.16400000       0.00000000       0.00000000       0.00000000       0.00000000       0.00000000       0.00000000
C       17.27000000      24.53300000      45.91000000       0.00000000       0.00000000       0.00000000       0.00000000       0.00000000       0.00000000
H       15.98800000      25.53100000      47.30900000       0.00000000       0.00000000       0.00000000       0.00000000       0.00000000       0.00000000
H       18.29100000      24.86500000      46.01300000       0.00000000       0.00000000       0.00000000       0.00000000       0.00000000       0.00000000
H       17.26800000      23.48900000      45.62900000       0.00000000       0.00000000       0.00000000       0.00000000       0.00000000       0.00000000
H       16.79100000      25.10700000      45.13000000       0.00000000       0.00000000       0.00000000       0.00000000       0.00000000       0.00000000
42
Properties=species:S:1:pos:R:3:momenta:R:3:forces:R:3 ala3_vac_capped.pdb=T energy=0.0 free_energy=0.0 pbc="F F F"
C       14.00127095      28.02435885      48.09169739      -0.04228235      -0.01094304      -0.10071965       0.00000000       0.00000000       0.00000000
O       14.61403166      27.03149543      47.67818548       0.10516631      -0.05416758       0.05194654       0.00000000       0.00000000       0.00000000
C       12.54707082      27.93483975      48.49179498       0.05892120       0.08018541      -0.01898081       0.00000000       0.00000000       0.00000000
H       12.42860008      27.21805901      49.29716861       0.00545713       0.00313215       0.01167902       0.00000000       0.00000000       0.00000000
H       12.19091985      28.89808803      48.82846095      -0.00776748      -0.00046741      -0.00175839       0.00000000       0.00000000       0.00000000
H       11.95698131      27.61760332      47.64835602       0.02797415       0.00613316      -0.00608304       0.00000000       0.00000000       0.00000000
N       14.61599809      29.15531751      48.19308690      -0.01865165       0.04652458       0.13489276       0.00000000       0.00000000       0.00000000
C       16.02233472      29.23047465      47.80134413      -0.00193349      -0.03256544      -0.00330868       0.00000000       0.00000000       0.00000000
C       16.85387614      28.24425206      48.58627827       0.00608167       0.06063587      -0.01585162       0.00000000       0.00000000       0.00000000
O       17.68065075      27.50405881      48.04118367       0.01452630       0.05274285       0.01955774       0.00000000       0.00000000       0.00000000
C       16.48206563      30.68524602      47.99795128      -0.03483115      -0.03317341       0.00115655       0.00000000       0.00000000       0.00000000
H       14.13127877      29.97901452      48.52757805      -0.00769220       0.02175866      -0.00377542       0.00000000       0.00000000       0.00000000
H       16.11041209      28.95779709      46.73639127       0.00369793       0.00381555       0.00726032       0.00000000       0.00000000       0.00000000
H       15.88326198      31.38517268      47.38738373      -0.00791226      -0.01258834       0.00184926       0.00000000       0.00000000       0.00000000
H       16.39185908      31.01525607      49.05344904       0.00667656       0.00109504       0.01019688       0.00000000       0.00000000       0.00000000
H       17.53764794      30.82445185      47.69607423      -0.00446296      -0.01790960      -0.01042390       0.00000000       0.00000000       0.00000000
N       16.69579676      28.17200465      49.86612553       0.02626294       0.07671532       0.03582169       0.00000000       0.00000000       0.00000000
C       17.49838458      27.21674462      50.62297227      -0.02106088       0.01380864       0.00026541       0.00000000       0.00000000       0.00000000
C       17.30149715      25.81354682      50.10598687      -0.00195544       0.01141521       0.00590540       0.00000000       0.00000000       0.00000000
O       18.25455216      25.05481135      49.88071567       0.02355610      -0.04360795      -0.07448413       0.00000000       0.00000000       0.00000000
C       17.12052213      27.36360289      52.10687831       0.00780174      -0.01749047      -0.00650971       0.00000000       0.00000000       0.00000000
H       16.02959124      28.76670020      50.33241102       0.00240079       0.00058493      -0.00831050       0.00000000       0.00000000       0.00000000
H       18.56959184      27.46930153      50.48960985       0.01145039      -0.00408945       0.00695879       0.00000000       0.00000000       0.00000000
H       17.30547390      28.39108370      52.47825708      -0.00296450       0.01213745      -0.00071449       0.00000000       0.00000000       0.00000000
H       16.04762019      27.14192889      52.28893723      -0.00499599      -0.01361425      -0.00611279       0.00000000       0.00000000       0.00000000
H       17.70447416      26.68825123      52.74837774      -0.00245447       0.02349318      -0.00979444       0.00000000       0.00000000       0.00000000
N       16.10162934      25.38898028      49.89116506      -0.06220977      -0.04726500       0.05273800       0.00000000       0.00000000       0.00000000
C       15.91170327      24.03126656      49.38906653      -0.03126620       0.01764603       0.01098407       0.00000000       0.00000000       0.00000000
C       16.65916778      23.82286658      48.09404684      -0.00662658       0.00844844       0.03225471       0.00000000       0.00000000       0.00000000
O       17.36560341      22.82561907      47.89790326      -0.02553424      -0.06166522      -0.00278976       0.00000000       0.00000000       0.00000000
C       14.39829419      23.79198193      49.24612659      -0.02988134      -0.04277408      -0.04483804       0.00000000       0.00000000       0.00000000
H       15.30461454      25.98526233      50.06393575      -0.00837611      -0.00421309       0.00074267       0.00000000       0.00000000       0.00000000
H       16.33066336      23.31700628      50.12628308       0.00703981      -0.01412174      -0.00084392       0.00000000       0.00000000       0.00000000
H       13.87519470      23.91239379      50.21290994      -0.00968585      -0.00018090      -0.00064918       0.00000000       0.00000000       0.00000000
H       13.93351483      24.49962919      48.53259679       0.01373004       0.00455062      -0.00360611       0.00000000       0.00000000       0.00000000
H       14.17157837      22.77288540      48.88861856      -0.00441372      -0.00535651      -0.00921087       0.00000000       0.00000000       0.00000000
N       16.56097727      24.71095360      47.16250225       0.02475548      -0.02000523      -0.05358615       0.00000000       0.00000000       0.00000000
C       17.26989283      24.53291301      45.91059216       0.00455284      -0.01631277       0.00292645       0.00000000       0.00000000       0.00000000
H       15.98725951      25.53189558      47.30959958      -0.00551081       0.00681313       0.00426074       0.00000000       0.00000000       0.00000000
H       18.29116633      24.86691031      46.01165849      -0.01069845       0.00345600      -0.01271839       0.00000000       0.00000000       0.00000000
H       17.26697663      23.48796625      45.63012953      -0.00088108      -0.00024015      -0.00086405       0.00000000       0.00000000       0.00000000
H       16.79213233      25.10637923      45.13073356       0.00399758      -0.00234056       0.00453704       0.00000000       0.00000000       0.00000000
42
Properties=species:S:1:pos:R:3:momenta:R:3:forces:R:3 ala3_vac_capped.pdb=T energy=0.0 free_energy=0.0 pbc="F F F"
C       13.99936390      28.02439493      48.08803982      -0.04411938       0.00590527      -0.06998760       0.00000000       0.00000000       0.00000000
O       14.61819727      27.03080701      47.67979715       0.16104768       0.00647018       0.03218227       0.00000000       0.00000000       0.00000000
C       12.54942029      27.93881828      48.49056690       0.05986822       0.11125837      -0.02973166       0.00000000       0.00000000       0.00000000
H       12.43261341      27.22117269      49.29245063       0.01462549       0.00919494      -0.01632615       0.00000000       0.00000000       0.00000000
H       12.18946232      28.90082651      48.83236208       0.00229594       0.01032939       0.01887428       0.00000000       0.00000000       0.00000000
H       11.96881251      27.62000765      47.64635843       0.01313741       0.01028440       0.00305328       0.00000000       0.00000000       0.00000000
N       14.61660216      29.15726192      48.19740872       0.04511984       0.05697831       0.08175599       0.00000000       0.00000000       0.00000000
C       16.02223910      29.22877279      47.80073942       0.02179778      -0.06404812      -0.04464111       0.00000000       0.00000000       0.00000000
C       16.85334464      28.24535567      48.58620350      -0.04288907      -0.00031264       0.04492031       0.00000000       0.00000000       0.00000000
O       17.68022666      27.50596923      48.04218664      -0.05312342       0.01626134       0.03740202       0.00000000       0.00000000       0.00000000
C       16.48092227      30.68519995      47.99707391      -0.02149007      -0.00527987      -0.04827192       0.00000000       0.00000000       0.00000000
H       14.12646612      29.99078230      48.52497753      -0.01738325       0.02898056       0.00129036       0.00000000       0.00000000       0.00000000
H       16.11322065      28.95925024      46.73527219       0.01080220       0.00205144      -0.00336544       0.00000000       0.00000000       0.00000000
H       15.87998576      31.37358189      47.38362486      -0.01360065      -0.02211711      -0.00347923       0.00000000       0.00000000       0.00000000
H       16.39669544      31.01918876      49.06070463       0.01270474       0.01133092       0.00919019       0.00000000       0.00000000       0.00000000
H       17.53811893      30.81696638      47.68858506       0.00822182      -0.02413265      -0.00429497       0.00000000       0.00000000       0.00000000
N       16.69636618      28.17447250      49.86786771       0.01386187       0.06614775       0.04607362       0.00000000       0.00000000       0.00000000
C       17.49693041      27.21567604      50.62384560      -0.06794840      -0.04660169       0.06400958       0.00000000       0.00000000       0.00000000
C       17.30370134      25.81345810      50.10617985       0.10173956       0.00381716      -0.00814224       0.00000000       0.00000000       0.00000000
O       18.25520395      25.05293117      49.87839834       0.01451077      -0.06716829      -0.05571966       0.00000000       0.00000000       0.00000000
C       17.12096402      27.36294069      52.10578421      -0.02996627      -0.03374161      -0.04489652       0.00000000       0.00000000       0.00000000
H       16.03174730      28.76590005      50.33166141      -0.00289721      -0.00451741      -0.00375985       0.00000000       0.00000000       0.00000000
H       18.57436170      27.46467609      50.49341514       0.01270070      -0.00532795       0.01167672       0.00000000       0.00000000       0.00000000
H       17.30770935      28.39948304      52.48012782       0.00653565       0.03216497       0.00537619       0.00000000       0.00000000       0.00000000
H       16.04507588      27.13537536      52.28720624      -0.02150037      -0.02110737      -0.01475945       0.00000000       0.00000000       0.00000000
H       17.70278830      26.70025070      52.74346771      -0.01161752       0.02358548      -0.01277917       0.00000000       0.00000000       0.00000000
N       16.10042664      25.38591800      49.89373535       0.02550005      -0.09469037       0.05422446       0.00000000       0.00000000       0.00000000
C       15.91016846      24.03354175      49.38955359      -0.03837839       0.06893543       0.03860170       0.00000000       0.00000000       0.00000000
C       16.65883722      23.82254814      48.09399309      -0.01683789      -0.03315090      -0.02673685       0.00000000       0.00000000       0.00000000
O       17.36423118      22.82532987      47.89701890      -0.04850959       0.02970957      -0.01027567       0.00000000       0.00000000       0.00000000
C       14.39708512      23.79019127      49.24394388       0.00079203      -0.04762816      -0.04241976       0.00000000       0.00000000       0.00000000
H       15.29959608      25.98463677      50.06603933      -0.00197378      -0.00461922       0.01001737       0.00000000       0.00000000       0.00000000
H       16.33262360      23.30525811      50.12576829       0.00496405      -0.02289366      -0.00706947       0.00000000       0.00000000       0.00000000
H       13.86689423      23.90638865      50.21415429      -0.02072147      -0.02215542       0.00205312       0.00000000       0.00000000       0.00000000
H       13.94271513      24.50585304      48.52382825       0.02097952       0.01295560      -0.02229057       0.00000000       0.00000000       0.00000000
H       14.17106455      22.77007368      48.88254899      -0.00272603       0.00414707      -0.01765423       0.00000000       0.00000000       0.00000000
N       16.56210398      24.71051294      47.16191274       0.02833275       0.01520031      -0.00823951       0.00000000       0.00000000       0.00000000
C       17.26715735      24.53239390      45.91153306      -0.09052201      -0.01586382       0.03129852       0.00000000       0.00000000       0.00000000
H       15.98530424      25.53297216      47.31573861       0.00399731       0.01340588       0.01698654       0.00000000       0.00000000       0.00000000
H       18.28215573      24.87059427      46.00511108      -0.02481059       0.00966257      -0.01755567       0.00000000       0.00000000       0.00000000
H       17.26448889      23.47773161      45.63135806      -0.01204917      -0.02661136      -0.00115762       0.00000000       0.00000000       0.00000000
H       16.79501471      25.10478991      45.13370534      -0.00047088       0.01319067       0.00456779       0.00000000       0.00000000       0.00000000
42
Properties=species:S:1:pos:R:3:momenta:R:3:forces:R:3 ala3_vac_capped.pdb=T energy=0.0 free_energy=0.0 pbc="F F F"
C       13.99750981      28.02345480      48.08352217      -0.05072721      -0.02333467      -0.12985026       0.00000000       0.00000000       0.00000000
O       14.62449286      27.03150307      47.68086064       0.22028917       0.03641383       0.05686958       0.00000000       0.00000000       0.00000000
C       12.55137984      27.94379571      48.48910557       0.04319945       0.14369566      -0.02732239       0.00000000       0.00000000       0.00000000
H       12.44024512      27.22598440      49.28535207       0.01288737       0.00449877      -0.00655114       0.00000000       0.00000000       0.00000000
H       12.19334460      28.90152483      48.83897929       0.01357880      -0.00542282       0.01291370       0.00000000       0.00000000       0.00000000
H       11.97458720      27.62336028      47.64588095       0.00811245       0.00548023      -0.00643861       0.00000000       0.00000000       0.00000000
N       14.61806099      29.15849026      48.20034408       0.06773734       0.00654357       0.08605271       0.00000000       0.00000000       0.00000000
C       16.02192275      29.22731839      47.79752067      -0.05899125      -0.04620048      -0.07682234       0.00000000       0.00000000       0.00000000
C       16.85362401      28.24437537      48.58539948       0.03191331      -0.02473394      -0.02750717       0.00000000       0.00000000       0.00000000
O       17.67895478      27.50702484      48.04377257      -0.00381154       0.01839558       0.02383321       0.00000000       0.00000000       0.00000000
C       16.47934809      30.68568548      47.99627241      -0.03426719      -0.02193270      -0.00043417       0.00000000       0.00000000       0.00000000
H       14.12153517      30.00632929      48.52561193      -0.00885820       0.03009416      -0.00149565       0.00000000       0.00000000       0.00000000
H       16.11539285      28.95413436      46.74375003      -0.00543209      -0.01811810       0.02316035       0.00000000       0.00000000       0.00000000
H       15.87286815      31.36762390      47.37909862      -0.00687577      -0.00401033      -0.01497769       0.00000000       0.00000000       0.00000000
H       16.40757839      31.02917095      49.06189289       0.02647677       0.02382295      -0.00178874       0.00000000       0.00000000       0.00000000
H       17.54190317      30.80693449      47.68950326       0.01044990      -0.01539158       0.00750332       0.00000000       0.00000000       0.00000000
N       16.69634184      28.17428624      49.86896410      -0.03848413      -0.01583578       0.05425909       0.00000000       0.00000000       0.00000000
C       17.49563525      27.21281534      50.62565263       0.00115990      -0.05957230       0.01583886       0.00000000       0.00000000       0.00000000
C       17.30763625      25.81377606      50.10647104       0.10946199       0.01357642       0.01082129       0.00000000       0.00000000       0.00000000
O       18.25601861      25.05167301      49.87843870       0.01892917       0.00390639       0.05545282       0.00000000       0.00000000       0.00000000
C       17.11951210      27.36142287      52.10283778      -0.01778734      -0.05523262      -0.08716074       0.00000000       0.00000000       0.00000000
H       16.02856800      28.76736213      50.32490019      -0.01187027       0.00713272      -0.01117471       0.00000000       0.00000000       0.00000000
H       18.58274506      27.46511605      50.50216113       0.01563501       0.00102340       0.02158694       0.00000000       0.00000000       0.00000000
H       17.30766551      28.41672858      52.48449727      -0.01284597       0.03377415       0.01024191       0.00000000       0.00000000       0.00000000
H       16.03596234      27.12648667      52.27934942      -0.01320884      -0.01739813      -0.01890229       0.00000000       0.00000000       0.00000000
H       17.69543522      26.70967199      52.73616799      -0.01335840       0.01549422      -0.01985195       0.00000000       0.00000000       0.00000000
N       16.10162832      25.38201251      49.89573638       0.05368772      -0.11279624       0.03874217       0.00000000       0.00000000       0.00000000
C       15.90680233      24.03680611      49.39190001      -0.07938870       0.11189343       0.06859713       0.00000000       0.00000000       0.00000000
C       16.65635530      23.82162498      48.09335577      -0.05829825      -0.02583999       0.00405621       0.00000000       0.00000000       0.00000000
O       17.36279186      22.82722042      47.89598338      -0.05483487       0.09907692      -0.08172223       0.00000000       0.00000000       0.00000000
C       14.39593942      23.78724625      49.24260541      -0.07287893      -0.08551993      -0.03125318       0.00000000       0.00000000       0.00000000
H       15.29526056      25.98352019      50.06922091      -0.01602490       0.00284921       0.01898069       0.00000000       0.00000000       0.00000000
H       16.33669630      23.29875532      50.12150411       0.01762796      -0.00909092      -0.01173114       0.00000000       0.00000000       0.00000000
H       13.85487331      23.90017561      50.21394989      -0.03003241      -0.00362513      -0.00745826       0.00000000       0.00000000       0.00000000
H       13.95153787      24.50900223      48.50990837       0.02753068       0.00244341      -0.04037267       0.00000000       0.00000000       0.00000000
H       14.16295564      22.77575427      48.87875532      -0.02518559       0.00592511      -0.01405877       0.00000000       0.00000000       0.00000000
N       16.56214909      24.71052617      47.16304277      -0.02502072      -0.02981147       0.02480948       0.00000000       0.00000000       0.00000000
C       17.26501879      24.53231311      45.91395467      -0.02213921       0.01313531       0.09154535       0.00000000       0.00000000       0.00000000
H       15.99306652      25.53604806      47.32716775       0.01555165       0.00724934       0.03130455       0.00000000       0.00000000       0.00000000
H       18.26977603      24.87606244      45.99786532      -0.03571961       0.01401641      -0.02139626       0.00000000       0.00000000       0.00000000
H       17.26154155      23.46372549      45.62723308      -0.00097512      -0.03621052      -0.02275069       0.00000000       0.00000000       0.00000000
H       16.79589312      25.11089895      45.13733192       0.00278786       0.00963647       0.00445171       0.00000000       0.00000000       0.00000000
42
Properties=species:S:1:pos:R:3:momenta:R:3:forces:R:3 ala3_vac_capped.pdb=T energy=0.0 free_energy=0.0 pbc="F F F"
C       13.99541905      28.02172955      48.07792279      -0.04863599      -0.04915181      -0.14201278       0.00000000       0.00000000       0.00000000
O       14.63057312      27.03211967      47.68249593       0.19302310       0.01221131       0.06024526       0.00000000       0.00000000       0.00000000
C       12.55230469      27.95001775      48.48796746       0.02296871       0.16069797      -0.02848886       0.00000000       0.00000000       0.00000000
H       12.44382291      27.22166454      49.28150261       0.00682669      -0.01332916      -0.01044037       0.00000000       0.00000000       0.00000000
H       12.21252675      28.90826328      48.84607951       0.04682126       0.01161793       0.00496249       0.00000000       0.00000000       0.00000000
H       11.97991219      27.62321547      47.64136600       0.00922338      -0.01147255      -0.00316035       0.00000000       0.00000000       0.00000000
N       14.62181922      29.15840030      48.20427020       0.18466345       0.00320740       0.11422775       0.00000000       0.00000000       0.00000000
C       16.01897227      29.22382382      47.79454156      -0.09205017      -0.08542456      -0.08770220       0.00000000       0.00000000       0.00000000
C       16.85388687      28.24358693      48.58463109       0.03783430       0.01064003      -0.00773779       0.00000000       0.00000000       0.00000000
O       17.67824512      27.50674982      48.04387457      -0.02289540      -0.02888614      -0.00936159       0.00000000       0.00000000       0.00000000
C       16.47760540      30.68396410      47.99630213      -0.04384745      -0.09786359       0.00632009       0.00000000       0.00000000       0.00000000
H       14.11482885      30.02168059      48.51821344      -0.02007043       0.03440039      -0.01948848       0.00000000       0.00000000       0.00000000
H       16.10915322      28.94109115      46.75986016      -0.02566265      -0.03728523       0.03056067       0.00000000       0.00000000       0.00000000
H       15.86861183      31.36255754      47.36867527      -0.00878161      -0.01916799      -0.02509220       0.00000000       0.00000000       0.00000000
H       16.42192984      31.03981469      49.06492899       0.02647625       0.02214490       0.02024128       0.00000000       0.00000000       0.00000000
H       17.54177738      30.80184774      47.69208583      -0.00733470      -0.01200213       0.00455623       0.00000000       0.00000000       0.00000000
N       16.69553902      28.17496867      49.86993981       0.00105126       0.00386761       0.02064043       0.00000000       0.00000000       0.00000000
C       17.49589051      27.21063411      50.62524289      -0.01027976      -0.04160042       0.01528083       0.00000000       0.00000000       0.00000000
C       17.31176666      25.81333043      50.10842161       0.09908111      -0.04486103       0.02050386       0.00000000       0.00000000       0.00000000
O       18.25705993      25.05084442      49.88109819       0.04199973      -0.06650731       0.12319457       0.00000000       0.00000000       0.00000000